 TITLE = "1D TEMP PLOT"
 VARIABLES = "Y [ft/ft]"," T [F/F]"
 ZONE F=BLOCK, T="", I =          100
        0.0050      0.0150      0.0250      0.0350      0.0450      0.0550
        0.0650      0.0750      0.0850      0.0950      0.1050      0.1150
        0.1250      0.1350      0.1450      0.1550      0.1650      0.1750
        0.1850      0.1950      0.2050      0.2150      0.2250      0.2350
        0.2450      0.2550      0.2650      0.2750      0.2850      0.2950
        0.3050      0.3150      0.3250      0.3350      0.3450      0.3550
        0.3650      0.3750      0.3850      0.3950      0.4050      0.4150
        0.4250      0.4350      0.4450      0.4550      0.4650      0.4750
        0.4850      0.4950      0.5050      0.5150      0.5250      0.5350
        0.5450      0.5550      0.5650      0.5750      0.5850      0.5950
        0.6050      0.6150      0.6250      0.6350      0.6450      0.6550
        0.6650      0.6750      0.6850      0.6950      0.7050      0.7150
        0.7250      0.7350      0.7450      0.7550      0.7650      0.7750
        0.7850      0.7950      0.8050      0.8150      0.8250      0.8350
        0.8450      0.8550      0.8650      0.8750      0.8850      0.8950
        0.9050      0.9150      0.9250      0.9350      0.9450      0.9550
        0.9650      0.9750      0.9850      0.9950
 
       60.0000     60.0000     60.0000     60.0000     60.0000     60.0000
       60.0000     60.0000     60.0000     60.0000     60.0000     60.0000
       60.0000     60.0000     60.0000     60.0000     60.0000     60.0000
       60.0000     60.0000     60.0000     60.0000     60.0000     60.0000
       60.0000     60.0000     60.0000     60.0000     60.0000     60.0000
       60.0000     60.0000     60.0000     60.0000     60.0000     60.0000
       60.0000     60.0000     60.0000     60.0000     60.0000     60.0000
       60.0000     60.0000     60.0000     60.0000     60.0000     60.0000
       60.0000     60.0000     60.0000     60.0000     60.0000     60.0000
       60.0000     60.0000     60.0000     60.0000     60.0000     60.0000
       60.0000     60.0000     60.0000     60.0000     60.0000     60.0000
       60.0000     60.0000     60.0000     60.0000     60.0000     60.0000
       60.0000     60.0000     60.0000     60.0000     60.0000     60.0000
       60.0000     60.0000     60.0000     60.0000     60.0000     60.0000
       60.0000     60.0000     60.0000     60.0000     60.0000     60.0000
       60.0000     60.0000     60.0000     60.0000     60.0000     60.0000
       60.0000     60.0000     60.0000     60.0000
 
 
 VARIABLES = "Y [ft/ft]"," T [F/F]"
 ZONE F=BLOCK, T="", I =          100
        0.0050      0.0150      0.0250      0.0350      0.0450      0.0550
        0.0650      0.0750      0.0850      0.0950      0.1050      0.1150
        0.1250      0.1350      0.1450      0.1550      0.1650      0.1750
        0.1850      0.1950      0.2050      0.2150      0.2250      0.2350
        0.2450      0.2550      0.2650      0.2750      0.2850      0.2950
        0.3050      0.3150      0.3250      0.3350      0.3450      0.3550
        0.3650      0.3750      0.3850      0.3950      0.4050      0.4150
        0.4250      0.4350      0.4450      0.4550      0.4650      0.4750
        0.4850      0.4950      0.5050      0.5150      0.5250      0.5350
        0.5450      0.5550      0.5650      0.5750      0.5850      0.5950
        0.6050      0.6150      0.6250      0.6350      0.6450      0.6550
        0.6650      0.6750      0.6850      0.6950      0.7050      0.7150
        0.7250      0.7350      0.7450      0.7550      0.7650      0.7750
        0.7850      0.7950      0.8050      0.8150      0.8250      0.8350
        0.8450      0.8550      0.8650      0.8750      0.8850      0.8950
        0.9050      0.9150      0.9250      0.9350      0.9450      0.9550
        0.9650      0.9750      0.9850      0.9950
 
       62.4924     60.6295     60.1611     60.0428     60.0123     60.0039
       60.0009     59.9994     59.9982     59.9972     59.9961     59.9950
       59.9940     59.9929     59.9918     59.9908     59.9897     59.9886
       59.9876     59.9865     59.9854     59.9843     59.9833     59.9822
       59.9811     59.9800     59.9789     59.9778     59.9767     59.9756
       59.9745     59.9733     59.9722     59.9711     59.9699     59.9688
       59.9676     59.9665     59.9653     59.9641     59.9630     59.9618
       59.9606     59.9594     59.9582     59.9569     59.9557     59.9545
       59.9532     59.9520     59.9507     59.9494     59.9481     59.9468
       59.9455     59.9442     59.9429     59.9415     59.9401     59.9388
       59.9374     59.9360     59.9346     59.9332     59.9317     59.9303
       59.9288     59.9273     59.9258     59.9243     59.9228     59.9212
       59.9197     59.9181     59.9165     59.9149     59.9133     59.9116
       59.9099     59.9083     59.9066     59.9048     59.9031     59.9013
       59.8995     59.8977     59.8959     59.8941     59.8922     59.8903
       59.8884     59.8864     59.8845     59.8825     59.8804     59.8783
       59.8756     59.8712     59.8598     59.8206
 
 
 VARIABLES = "Y [ft/ft]"," T [F/F]"
 ZONE F=BLOCK, T="", I =          100
        0.0050      0.0150      0.0250      0.0350      0.0450      0.0550
        0.0650      0.0750      0.0850      0.0950      0.1050      0.1150
        0.1250      0.1350      0.1450      0.1550      0.1650      0.1750
        0.1850      0.1950      0.2050      0.2150      0.2250      0.2350
        0.2450      0.2550      0.2650      0.2750      0.2850      0.2950
        0.3050      0.3150      0.3250      0.3350      0.3450      0.3550
        0.3650      0.3750      0.3850      0.3950      0.4050      0.4150
        0.4250      0.4350      0.4450      0.4550      0.4650      0.4750
        0.4850      0.4950      0.5050      0.5150      0.5250      0.5350
        0.5450      0.5550      0.5650      0.5750      0.5850      0.5950
        0.6050      0.6150      0.6250      0.6350      0.6450      0.6550
        0.6650      0.6750      0.6850      0.6950      0.7050      0.7150
        0.7250      0.7350      0.7450      0.7550      0.7650      0.7750
        0.7850      0.7950      0.8050      0.8150      0.8250      0.8350
        0.8450      0.8550      0.8650      0.8750      0.8850      0.8950
        0.9050      0.9150      0.9250      0.9350      0.9450      0.9550
        0.9650      0.9750      0.9850      0.9950
 
       67.6074     62.5349     60.7482     60.2073     60.0554     60.0136
       60.0012     59.9966     59.9939     59.9917     59.9897     59.9877
       59.9856     59.9836     59.9816     59.9796     59.9776     59.9756
       59.9736     59.9715     59.9695     59.9675     59.9655     59.9635
       59.9615     59.9595     59.9575     59.9555     59.9535     59.9514
       59.9494     59.9474     59.9454     59.9434     59.9414     59.9394
       59.9374     59.9354     59.9334     59.9314     59.9294     59.9274
       59.9254     59.9234     59.9214     59.9194     59.9174     59.9154
       59.9135     59.9115     59.9095     59.9075     59.9055     59.9035
       59.9016     59.8996     59.8976     59.8957     59.8937     59.8917
       59.8898     59.8878     59.8859     59.8839     59.8820     59.8801
       59.8781     59.8762     59.8743     59.8723     59.8704     59.8685
       59.8666     59.8647     59.8628     59.8609     59.8590     59.8571
       59.8553     59.8534     59.8515     59.8497     59.8478     59.8460
       59.8442     59.8423     59.8405     59.8387     59.8369     59.8351
       59.8333     59.8315     59.8298     59.8280     59.8261     59.8240
       59.8209     59.8145     59.7988     59.7687
 
 
 VARIABLES = "Y [ft/ft]"," T [F/F]"
 ZONE F=BLOCK, T="", I =          100
        0.0050      0.0150      0.0250      0.0350      0.0450      0.0550
        0.0650      0.0750      0.0850      0.0950      0.1050      0.1150
        0.1250      0.1350      0.1450      0.1550      0.1650      0.1750
        0.1850      0.1950      0.2050      0.2150      0.2250      0.2350
        0.2450      0.2550      0.2650      0.2750      0.2850      0.2950
        0.3050      0.3150      0.3250      0.3350      0.3450      0.3550
        0.3650      0.3750      0.3850      0.3950      0.4050      0.4150
        0.4250      0.4350      0.4450      0.4550      0.4650      0.4750
        0.4850      0.4950      0.5050      0.5150      0.5250      0.5350
        0.5450      0.5550      0.5650      0.5750      0.5850      0.5950
        0.6050      0.6150      0.6250      0.6350      0.6450      0.6550
        0.6650      0.6750      0.6850      0.6950      0.7050      0.7150
        0.7250      0.7350      0.7450      0.7550      0.7650      0.7750
        0.7850      0.7950      0.8050      0.8150      0.8250      0.8350
        0.8450      0.8550      0.8650      0.8750      0.8850      0.8950
        0.9050      0.9150      0.9250      0.9350      0.9450      0.9550
        0.9650      0.9750      0.9850      0.9950
 
       71.5679     65.2226     62.0120     60.6876     60.2148     60.0618
       60.0149     60.0002     59.9947     59.9917     59.9894     59.9873
       59.9852     59.9831     59.9810     59.9789     59.9768     59.9747
       59.9726     59.9706     59.9685     59.9664     59.9643     59.9622
       59.9602     59.9581     59.9560     59.9540     59.9519     59.9499
       59.9478     59.9457     59.9437     59.9416     59.9396     59.9375
       59.9355     59.9335     59.9314     59.9294     59.9274     59.9253
       59.9233     59.9213     59.9193     59.9173     59.9153     59.9133
       59.9113     59.9093     59.9073     59.9053     59.9033     59.9014
       59.8994     59.8974     59.8955     59.8935     59.8916     59.8896
       59.8877     59.8858     59.8838     59.8819     59.8800     59.8781
       59.8762     59.8743     59.8724     59.8706     59.8687     59.8668
       59.8650     59.8631     59.8613     59.8594     59.8576     59.8558
       59.8540     59.8522     59.8504     59.8486     59.8468     59.8451
       59.8433     59.8415     59.8398     59.8381     59.8363     59.8346
       59.8329     59.8312     59.8295     59.8278     59.8259     59.8236
       59.8198     59.8125     59.7993     59.7831
 
 
 VARIABLES = "Y [ft/ft]"," T [F/F]"
 ZONE F=BLOCK, T="", I =          100
        0.0050      0.0150      0.0250      0.0350      0.0450      0.0550
        0.0650      0.0750      0.0850      0.0950      0.1050      0.1150
        0.1250      0.1350      0.1450      0.1550      0.1650      0.1750
        0.1850      0.1950      0.2050      0.2150      0.2250      0.2350
        0.2450      0.2550      0.2650      0.2750      0.2850      0.2950
        0.3050      0.3150      0.3250      0.3350      0.3450      0.3550
        0.3650      0.3750      0.3850      0.3950      0.4050      0.4150
        0.4250      0.4350      0.4450      0.4550      0.4650      0.4750
        0.4850      0.4950      0.5050      0.5150      0.5250      0.5350
        0.5450      0.5550      0.5650      0.5750      0.5850      0.5950
        0.6050      0.6150      0.6250      0.6350      0.6450      0.6550
        0.6650      0.6750      0.6850      0.6950      0.7050      0.7150
        0.7250      0.7350      0.7450      0.7550      0.7650      0.7750
        0.7850      0.7950      0.8050      0.8150      0.8250      0.8350
        0.8450      0.8550      0.8650      0.8750      0.8850      0.8950
        0.9050      0.9150      0.9250      0.9350      0.9450      0.9550
        0.9650      0.9750      0.9850      0.9950
 
       74.5212     67.8650     63.6917     61.5305     60.5713     60.1947
       60.0600     60.0146     59.9993     59.9933     59.9902     59.9878
       59.9856     59.9835     59.9814     59.9793     59.9772     59.9751
       59.9730     59.9710     59.9689     59.9668     59.9647     59.9626
       59.9606     59.9585     59.9564     59.9544     59.9523     59.9502
       59.9482     59.9461     59.9441     59.9420     59.9400     59.9379
       59.9359     59.9338     59.9318     59.9298     59.9277     59.9257
       59.9237     59.9217     59.9196     59.9176     59.9156     59.9136
       59.9116     59.9096     59.9076     59.9057     59.9037     59.9017
       59.8997     59.8978     59.8958     59.8939     59.8919     59.8900
       59.8880     59.8861     59.8842     59.8823     59.8804     59.8785
       59.8766     59.8747     59.8728     59.8709     59.8690     59.8672
       59.8653     59.8635     59.8616     59.8598     59.8580     59.8561
       59.8543     59.8525     59.8507     59.8490     59.8472     59.8454
       59.8436     59.8419     59.8401     59.8384     59.8367     59.8350
       59.8333     59.8316     59.8299     59.8281     59.8261     59.8234
       59.8192     59.8122     59.8016     59.7915
 
 
 VARIABLES = "Y [ft/ft]"," T [F/F]"
 ZONE F=BLOCK, T="", I =          100
        0.0050      0.0150      0.0250      0.0350      0.0450      0.0550
        0.0650      0.0750      0.0850      0.0950      0.1050      0.1150
        0.1250      0.1350      0.1450      0.1550      0.1650      0.1750
        0.1850      0.1950      0.2050      0.2150      0.2250      0.2350
        0.2450      0.2550      0.2650      0.2750      0.2850      0.2950
        0.3050      0.3150      0.3250      0.3350      0.3450      0.3550
        0.3650      0.3750      0.3850      0.3950      0.4050      0.4150
        0.4250      0.4350      0.4450      0.4550      0.4650      0.4750
        0.4850      0.4950      0.5050      0.5150      0.5250      0.5350
        0.5450      0.5550      0.5650      0.5750      0.5850      0.5950
        0.6050      0.6150      0.6250      0.6350      0.6450      0.6550
        0.6650      0.6750      0.6850      0.6950      0.7050      0.7150
        0.7250      0.7350      0.7450      0.7550      0.7650      0.7750
        0.7850      0.7950      0.8050      0.8150      0.8250      0.8350
        0.8450      0.8550      0.8650      0.8750      0.8850      0.8950
        0.9050      0.9150      0.9250      0.9350      0.9450      0.9550
        0.9650      0.9750      0.9850      0.9950
 
       76.8569     70.2538     65.5202     62.6523     61.1499     60.4545
       60.1644     60.0531     60.0126     59.9979     59.9918     59.9886
       59.9861     59.9839     59.9818     59.9797     59.9776     59.9756
       59.9735     59.9714     59.9693     59.9673     59.9652     59.9631
       59.9610     59.9589     59.9569     59.9548     59.9527     59.9507
       59.9486     59.9466     59.9445     59.9424     59.9404     59.9383
       59.9363     59.9342     59.9322     59.9302     59.9281     59.9261
       59.9241     59.9221     59.9201     59.9181     59.9161     59.9140
       59.9120     59.9100     59.9081     59.9061     59.9041     59.9021
       59.9002     59.8982     59.8962     59.8943     59.8923     59.8904
       59.8884     59.8865     59.8846     59.8827     59.8808     59.8788
       59.8770     59.8751     59.8732     59.8713     59.8694     59.8676
       59.8657     59.8639     59.8620     59.8602     59.8583     59.8565
       59.8547     59.8529     59.8511     59.8493     59.8475     59.8458
       59.8440     59.8423     59.8405     59.8388     59.8371     59.8353
       59.8336     59.8319     59.8302     59.8283     59.8262     59.8233
       59.8190     59.8125     59.8042     59.7971
 
 
 VARIABLES = "Y [ft/ft]"," T [F/F]"
 ZONE F=BLOCK, T="", I =          100
        0.0050      0.0150      0.0250      0.0350      0.0450      0.0550
        0.0650      0.0750      0.0850      0.0950      0.1050      0.1150
        0.1250      0.1350      0.1450      0.1550      0.1650      0.1750
        0.1850      0.1950      0.2050      0.2150      0.2250      0.2350
        0.2450      0.2550      0.2650      0.2750      0.2850      0.2950
        0.3050      0.3150      0.3250      0.3350      0.3450      0.3550
        0.3650      0.3750      0.3850      0.3950      0.4050      0.4150
        0.4250      0.4350      0.4450      0.4550      0.4650      0.4750
        0.4850      0.4950      0.5050      0.5150      0.5250      0.5350
        0.5450      0.5550      0.5650      0.5750      0.5850      0.5950
        0.6050      0.6150      0.6250      0.6350      0.6450      0.6550
        0.6650      0.6750      0.6850      0.6950      0.7050      0.7150
        0.7250      0.7350      0.7450      0.7550      0.7650      0.7750
        0.7850      0.7950      0.8050      0.8150      0.8250      0.8350
        0.8450      0.8550      0.8650      0.8750      0.8850      0.8950
        0.9050      0.9150      0.9250      0.9350      0.9450      0.9550
        0.9650      0.9750      0.9850      0.9950
 
       78.7784     72.3767     67.3534     63.9487     61.9276     60.8611
       60.3538     60.1331     60.0438     60.0094     59.9960     59.9902
       59.9870     59.9845     59.9823     59.9802     59.9781     59.9760
       59.9739     59.9719     59.9698     59.9677     59.9656     59.9635
       59.9614     59.9594     59.9573     59.9552     59.9531     59.9511
       59.9490     59.9470     59.9449     59.9429     59.9408     59.9388
       59.9367     59.9347     59.9326     59.9306     59.9286     59.9266
       59.9245     59.9225     59.9205     59.9185     59.9165     59.9144
       59.9124     59.9105     59.9085     59.9065     59.9045     59.9026
       59.9006     59.8986     59.8967     59.8947     59.8927     59.8908
       59.8888     59.8869     59.8850     59.8831     59.8812     59.8792
       59.8774     59.8755     59.8736     59.8717     59.8698     59.8680
       59.8661     59.8643     59.8624     59.8606     59.8587     59.8569
       59.8551     59.8533     59.8515     59.8497     59.8479     59.8462
       59.8444     59.8426     59.8409     59.8391     59.8374     59.8357
       59.8340     59.8323     59.8305     59.8286     59.8263     59.8233
       59.8191     59.8132     59.8064     59.8012
 
 
 VARIABLES = "Y [ft/ft]"," T [F/F]"
 ZONE F=BLOCK, T="", I =          100
        0.0050      0.0150      0.0250      0.0350      0.0450      0.0550
        0.0650      0.0750      0.0850      0.0950      0.1050      0.1150
        0.1250      0.1350      0.1450      0.1550      0.1650      0.1750
        0.1850      0.1950      0.2050      0.2150      0.2250      0.2350
        0.2450      0.2550      0.2650      0.2750      0.2850      0.2950
        0.3050      0.3150      0.3250      0.3350      0.3450      0.3550
        0.3650      0.3750      0.3850      0.3950      0.4050      0.4150
        0.4250      0.4350      0.4450      0.4550      0.4650      0.4750
        0.4850      0.4950      0.5050      0.5150      0.5250      0.5350
        0.5450      0.5550      0.5650      0.5750      0.5850      0.5950
        0.6050      0.6150      0.6250      0.6350      0.6450      0.6550
        0.6650      0.6750      0.6850      0.6950      0.7050      0.7150
        0.7250      0.7350      0.7450      0.7550      0.7650      0.7750
        0.7850      0.7950      0.8050      0.8150      0.8250      0.8350
        0.8450      0.8550      0.8650      0.8750      0.8850      0.8950
        0.9050      0.9150      0.9250      0.9350      0.9450      0.9550
        0.9650      0.9750      0.9850      0.9950
 
       80.4136     74.2624     69.1170     65.3309     62.8584     61.4111
       60.6439     60.2717     60.1046     60.0343     60.0057     59.9940
       59.9885     59.9853     59.9828     59.9806     59.9785     59.9764
       59.9743     59.9723     59.9702     59.9682     59.9661     59.9640
       59.9619     59.9598     59.9578     59.9557     59.9536     59.9515
       59.9495     59.9475     59.9454     59.9433     59.9413     59.9392
       59.9372     59.9351     59.9331     59.9311     59.9290     59.9270
       59.9250     59.9229     59.9209     59.9189     59.9169     59.9149
       59.9129     59.9109     59.9089     59.9069     59.9050     59.9030
       59.9010     59.8991     59.8971     59.8951     59.8932     59.8912
       59.8893     59.8874     59.8854     59.8835     59.8816     59.8796
       59.8778     59.8759     59.8740     59.8721     59.8702     59.8684
       59.8665     59.8647     59.8628     59.8610     59.8591     59.8573
       59.8555     59.8537     59.8519     59.8501     59.8483     59.8465
       59.8448     59.8430     59.8412     59.8395     59.8378     59.8361
       59.8343     59.8326     59.8308     59.8288     59.8265     59.8235
       59.8194     59.8141     59.8085     59.8043
 
 
 VARIABLES = "Y [ft/ft]"," T [F/F]"
 ZONE F=BLOCK, T="", I =          100
        0.0050      0.0150      0.0250      0.0350      0.0450      0.0550
        0.0650      0.0750      0.0850      0.0950      0.1050      0.1150
        0.1250      0.1350      0.1450      0.1550      0.1650      0.1750
        0.1850      0.1950      0.2050      0.2150      0.2250      0.2350
        0.2450      0.2550      0.2650      0.2750      0.2850      0.2950
        0.3050      0.3150      0.3250      0.3350      0.3450      0.3550
        0.3650      0.3750      0.3850      0.3950      0.4050      0.4150
        0.4250      0.4350      0.4450      0.4550      0.4650      0.4750
        0.4850      0.4950      0.5050      0.5150      0.5250      0.5350
        0.5450      0.5550      0.5650      0.5750      0.5850      0.5950
        0.6050      0.6150      0.6250      0.6350      0.6450      0.6550
        0.6650      0.6750      0.6850      0.6950      0.7050      0.7150
        0.7250      0.7350      0.7450      0.7550      0.7650      0.7750
        0.7850      0.7950      0.8050      0.8150      0.8250      0.8350
        0.8450      0.8550      0.8650      0.8750      0.8850      0.8950
        0.9050      0.9150      0.9250      0.9350      0.9450      0.9550
        0.9650      0.9750      0.9850      0.9950
 
       81.8303     75.9477     70.7850     66.7408     63.8962     62.0870
       61.0387     60.4810     60.2065     60.0803     60.0253     60.0020
       59.9918     59.9867     59.9836     59.9812     59.9790     59.9769
       59.9748     59.9728     59.9707     59.9686     59.9665     59.9644
       59.9623     59.9603     59.9582     59.9561     59.9540     59.9520
       59.9499     59.9479     59.9458     59.9437     59.9417     59.9396
       59.9376     59.9355     59.9335     59.9315     59.9295     59.9275
       59.9254     59.9234     59.9214     59.9194     59.9174     59.9153
       59.9133     59.9113     59.9094     59.9074     59.9054     59.9035
       59.9015     59.8995     59.8975     59.8956     59.8936     59.8916
       59.8897     59.8878     59.8859     59.8839     59.8820     59.8801
       59.8782     59.8763     59.8744     59.8725     59.8706     59.8688
       59.8669     59.8651     59.8632     59.8614     59.8595     59.8577
       59.8559     59.8541     59.8523     59.8505     59.8487     59.8469
       59.8452     59.8434     59.8416     59.8399     59.8381     59.8364
       59.8347     59.8330     59.8311     59.8291     59.8267     59.8237
       59.8198     59.8151     59.8102     59.8068
 
 
 VARIABLES = "Y [ft/ft]"," T [F/F]"
 ZONE F=BLOCK, T="", I =          100
        0.0050      0.0150      0.0250      0.0350      0.0450      0.0550
        0.0650      0.0750      0.0850      0.0950      0.1050      0.1150
        0.1250      0.1350      0.1450      0.1550      0.1650      0.1750
        0.1850      0.1950      0.2050      0.2150      0.2250      0.2350
        0.2450      0.2550      0.2650      0.2750      0.2850      0.2950
        0.3050      0.3150      0.3250      0.3350      0.3450      0.3550
        0.3650      0.3750      0.3850      0.3950      0.4050      0.4150
        0.4250      0.4350      0.4450      0.4550      0.4650      0.4750
        0.4850      0.4950      0.5050      0.5150      0.5250      0.5350
        0.5450      0.5550      0.5650      0.5750      0.5850      0.5950
        0.6050      0.6150      0.6250      0.6350      0.6450      0.6550
        0.6650      0.6750      0.6850      0.6950      0.7050      0.7150
        0.7250      0.7350      0.7450      0.7550      0.7650      0.7750
        0.7850      0.7950      0.8050      0.8150      0.8250      0.8350
        0.8450      0.8550      0.8650      0.8750      0.8850      0.8950
        0.9050      0.9150      0.9250      0.9350      0.9450      0.9550
        0.9650      0.9750      0.9850      0.9950
 
       83.0770     77.4634     72.3489     68.1409     65.0009     62.8649
       61.5331     60.7673     60.3590     60.1555     60.0600     60.0172
       59.9982     59.9895     59.9849     59.9819     59.9795     59.9773
       59.9752     59.9732     59.9712     59.9691     59.9670     59.9649
       59.9628     59.9608     59.9587     59.9566     59.9545     59.9525
       59.9504     59.9484     59.9463     59.9442     59.9421     59.9401
       59.9380     59.9360     59.9340     59.9320     59.9299     59.9279
       59.9259     59.9238     59.9218     59.9198     59.9178     59.9158
       59.9137     59.9118     59.9098     59.9078     59.9059     59.9039
       59.9019     59.9000     59.8980     59.8960     59.8940     59.8921
       59.8901     59.8882     59.8863     59.8844     59.8824     59.8805
       59.8786     59.8767     59.8748     59.8729     59.8710     59.8692
       59.8673     59.8655     59.8636     59.8618     59.8599     59.8581
       59.8564     59.8545     59.8527     59.8510     59.8491     59.8473
       59.8456     59.8438     59.8420     59.8402     59.8385     59.8368
       59.8351     59.8333     59.8315     59.8294     59.8270     59.8240
       59.8203     59.8160     59.8118     59.8089
 
 
 VARIABLES = "Y [ft/ft]"," T [F/F]"
 ZONE F=BLOCK, T="", I =          100
        0.0050      0.0150      0.0250      0.0350      0.0450      0.0550
        0.0650      0.0750      0.0850      0.0950      0.1050      0.1150
        0.1250      0.1350      0.1450      0.1550      0.1650      0.1750
        0.1850      0.1950      0.2050      0.2150      0.2250      0.2350
        0.2450      0.2550      0.2650      0.2750      0.2850      0.2950
        0.3050      0.3150      0.3250      0.3350      0.3450      0.3550
        0.3650      0.3750      0.3850      0.3950      0.4050      0.4150
        0.4250      0.4350      0.4450      0.4550      0.4650      0.4750
        0.4850      0.4950      0.5050      0.5150      0.5250      0.5350
        0.5450      0.5550      0.5650      0.5750      0.5850      0.5950
        0.6050      0.6150      0.6250      0.6350      0.6450      0.6550
        0.6650      0.6750      0.6850      0.6950      0.7050      0.7150
        0.7250      0.7350      0.7450      0.7550      0.7650      0.7750
        0.7850      0.7950      0.8050      0.8150      0.8250      0.8350
        0.8450      0.8550      0.8650      0.8750      0.8850      0.8950
        0.9050      0.9150      0.9250      0.9350      0.9450      0.9550
        0.9650      0.9750      0.9850      0.9950
 
       84.1822     78.8340     73.8108     69.5103     66.1430     63.7221
       62.1172     61.1316     60.5684     60.2673     60.1159     60.0435
       60.0101     59.9946     59.9872     59.9830     59.9802     59.9778
       59.9757     59.9737     59.9717     59.9696     59.9675     59.9653
       59.9632     59.9612     59.9592     59.9570     59.9549     59.9529
       59.9509     59.9488     59.9467     59.9446     59.9426     59.9405
       59.9385     59.9364     59.9344     59.9324     59.9304     59.9284
       59.9264     59.9243     59.9223     59.9203     59.9183     59.9162
       59.9142     59.9122     59.9102     59.9083     59.9063     59.9044
       59.9024     59.9004     59.8984     59.8965     59.8945     59.8925
       59.8905     59.8887     59.8868     59.8848     59.8828     59.8809
       59.8790     59.8771     59.8752     59.8733     59.8714     59.8696
       59.8677     59.8659     59.8640     59.8622     59.8604     59.8586
       59.8568     59.8549     59.8532     59.8514     59.8495     59.8478
       59.8460     59.8442     59.8424     59.8406     59.8389     59.8372
       59.8354     59.8337     59.8318     59.8297     59.8273     59.8244
       59.8209     59.8170     59.8132     59.8108
 
 
 VARIABLES = "Y [ft/ft]"," T [F/F]"
 ZONE F=BLOCK, T="", I =          100
        0.0050      0.0150      0.0250      0.0350      0.0450      0.0550
        0.0650      0.0750      0.0850      0.0950      0.1050      0.1150
        0.1250      0.1350      0.1450      0.1550      0.1650      0.1750
        0.1850      0.1950      0.2050      0.2150      0.2250      0.2350
        0.2450      0.2550      0.2650      0.2750      0.2850      0.2950
        0.3050      0.3150      0.3250      0.3350      0.3450      0.3550
        0.3650      0.3750      0.3850      0.3950      0.4050      0.4150
        0.4250      0.4350      0.4450      0.4550      0.4650      0.4750
        0.4850      0.4950      0.5050      0.5150      0.5250      0.5350
        0.5450      0.5550      0.5650      0.5750      0.5850      0.5950
        0.6050      0.6150      0.6250      0.6350      0.6450      0.6550
        0.6650      0.6750      0.6850      0.6950      0.7050      0.7150
        0.7250      0.7350      0.7450      0.7550      0.7650      0.7750
        0.7850      0.7950      0.8050      0.8150      0.8250      0.8350
        0.8450      0.8550      0.8650      0.8750      0.8850      0.8950
        0.9050      0.9150      0.9250      0.9350      0.9450      0.9550
        0.9650      0.9750      0.9850      0.9950
 
       85.1746     80.0798     75.1743     70.8348     67.2987     64.6362
       62.7775     61.5702     60.8379     60.4215     60.1984     60.0851
       60.0300     60.0038     59.9913     59.9849     59.9812     59.9784